                         Program Version 5.0.3 -  RELEASE  -
|  1> ! B3LYP D3 def2-TZVP def2/J RIJCOSX Opt Freq noautostart miniprint nopop
|  2> %maxcore  1000
|  3> %pal nprocs   8 end
|  4> * xyz   0   1
|  5> O      0.00000000    0.00000000   -0.11085125
|  6> H      0.00000000   -0.78383672    0.44340501
|  7> H      0.00000000    0.78383672    0.44340501
|  8>  *
|  9>
| 10>                          ****END OF INPUT****
Dispersion correction           -0.000573582
FINAL SINGLE POINT ENERGY       -76.426223303517
Dispersion correction            ... done
Dispersion correction           -0.000573696
FINAL SINGLE POINT ENERGY       -76.426504023458
Dispersion correction            ... done
Dispersion correction           -0.000573831
FINAL SINGLE POINT ENERGY       -76.426629783932
Dispersion correction            ... done
Dispersion correction           -0.000573827
FINAL SINGLE POINT ENERGY       -76.426629817869
Dispersion correction            ... done
                    ***********************HURRAY********************

CARTESIAN COORDINATES (ANGSTROEM)
---------------------------------
  O      0.000000    0.000000   -0.130887
  H      0.000000   -0.765313    0.453423
  H      0.000000    0.765313    0.453423

ORBITAL ENERGIES
----------------

  NO   OCC          E(Eh)            E(eV)
   0   2.0000     -19.123817      -520.3855
   1   2.0000      -1.010556       -27.4986
   2   2.0000      -0.531981       -14.4759
   3   2.0000      -0.387061       -10.5325
   4   2.0000      -0.312925        -8.5151
   5   0.0000       0.016533         0.4499
   6   0.0000       0.091510         2.4901
   7   0.0000       0.359586         9.7848
   8   0.0000       0.407430        11.0867
   9   0.0000       0.427861        11.6427

Total SCF time: 0 days 0 hours 0 min 0 sec

Dispersion correction           -0.000573827
FINAL SINGLE POINT ENERGY       -76.426629819773

DIPOLE MOMENT
-------------
                                X             Y             Z
Electronic contribution:     -0.00000      -0.00000      -0.16132
Nuclear contribution   :      0.00000      -0.00000       0.97271
                        -----------------------------------------
Total Dipole Moment    :     -0.00000      -0.00000       0.81140
                        -----------------------------------------
Magnitude (a.u.)       :      0.81140
Magnitude (Debye)      :      2.06240

Dispersion correction in the Hessian             ... done   (      0.3 sec)

VIBRATIONAL FREQUENCIES
-----------------------

Scaling factor for frequencies =  1.000000000  (already applied!)

   0:         0.00 cm**-1
   1:         0.00 cm**-1
   2:         0.00 cm**-1
   3:         0.00 cm**-1
   4:         0.00 cm**-1
   5:         0.00 cm**-1
   6:      1615.77 cm**-1
   7:      3781.57 cm**-1
   8:      3886.52 cm**-1

IR SPECTRUM
-----------

 Mode   freq       eps      Int      T**2         TX        TY        TZ
       cm**-1   L/(mol*cm) km/mol    a.u.
----------------------------------------------------------------------------
  6:   1615.77   0.015973   80.72  0.003085  (-0.000000  0.000000  0.055543)
  7:   3781.57   0.000830    4.20  0.000069  (-0.000000  0.000000 -0.008278)
  8:   3886.52   0.008571   43.31  0.000688  (-0.000000 -0.026233 -0.000000)

--------------------------
THERMOCHEMISTRY AT 298.15K
--------------------------

Temperature         ... 298.15 K
Pressure            ... 1.00 atm
Total Mass          ... 18.02 AMU

Throughout the following assumptions are being made:
  (1) The electronic state is orbitally nondegenerate
  (2) There are no thermally accessible electronically excited states
  (3) Hindered rotations indicated by low frequency modes are not
      treated as such but are treated as vibrations and this may
      cause some error
  (4) All equations used are the standard statistical mechanics
      equations for an ideal gas
  (5) All vibrations are strictly harmonic

freq.    1615.77  E(vib)   ...       0.00
freq.    3781.57  E(vib)   ...       0.00
freq.    3886.52  E(vib)   ...       0.00

------------
INNER ENERGY
------------

The inner energy is: U= E(el) + E(ZPE) + E(vib) + E(rot) + E(trans)
    E(el)   - is the total energy from the electronic structure calculation
              = E(kin-el) + E(nuc-el) + E(el-el) + E(nuc-nuc)
    E(ZPE)  - the the zero temperature vibrational energy from the frequency calculation
    E(vib)  - the the finite temperature correction to E(ZPE) due to population
              of excited vibrational states
    E(rot)  - is the rotational thermal energy
    E(trans)- is the translational thermal energy

Summary of contributions to the inner energy U:
Electronic energy                ...    -76.42662982 Eh
Zero point energy                ...      0.02115021 Eh      13.27 kcal/mol
Thermal vibrational correction   ...      0.00000303 Eh       0.00 kcal/mol
Thermal rotational correction    ...      0.00141627 Eh       0.89 kcal/mol
Thermal translational correction ...      0.00141627 Eh       0.89 kcal/mol
-----------------------------------------------------------------------
Total thermal energy                    -76.40264404 Eh

Summary of corrections to the electronic energy:
(perhaps to be used in another calculation)
Total thermal correction                  0.00283557 Eh       1.78 kcal/mol
Non-thermal (ZPE) correction              0.02115021 Eh      13.27 kcal/mol
-----------------------------------------------------------------------
Total correction                          0.02398578 Eh      15.05 kcal/mol

--------
ENTHALPY
--------

The enthalpy is H = U + kB*T
                kB is Boltzmann's constant
Total free energy                 ...    -76.40264404 Eh
Thermal Enthalpy correction       ...      0.00094421 Eh       0.59 kcal/mol
-----------------------------------------------------------------------
Total Enthalpy                    ...    -76.40169983 Eh

Note: Rotational entropy computed according to Herzberg
Infrared and Raman Spectra, Chapter V,1, Van Nostrand Reinhold, 1945
Point Group:  C2v, Symmetry Number:   2
Rotational constants in cm-1:    27.577908    14.276698     9.406885

Vibrational entropy computed according to the QRRHO of S. Grimme
Chem.Eur.J. 2012 18 9955

-------
ENTROPY
-------

The entropy contributions are T*S = T*(S(el)+S(vib)+S(rot)+S(trans))
     S(el)   - electronic entropy
     S(vib)  - vibrational entropy
     S(rot)  - rotational entropy
     S(trans)- translational entropy
The entropies will be listed as multiplied by the temperature to get
units of energy

Electronic entropy                ...      0.00000000 Eh      0.00 kcal/mol
Vibrational entropy               ...      0.00000342 Eh      0.00 kcal/mol
Rotational entropy                ...      0.00497715 Eh      3.12 kcal/mol
Translational entropy             ...      0.01644380 Eh     10.32 kcal/mol
-----------------------------------------------------------------------
Final entropy term                ...      0.02142436 Eh     13.44 kcal/mol

In case the symmetry of your molecule has not been determined correctly
or in case you have a reason to use a different symmetry number we print
out the resulting rotational entropy values for sn=1,12 :
 --------------------------------------------------------
|  sn= 1 | S(rot)=       0.00563160 Eh      3.53 kcal/mol|
|  sn= 2 | S(rot)=       0.00497715 Eh      3.12 kcal/mol|
|  sn= 3 | S(rot)=       0.00459431 Eh      2.88 kcal/mol|
|  sn= 4 | S(rot)=       0.00432269 Eh      2.71 kcal/mol|
|  sn= 5 | S(rot)=       0.00411200 Eh      2.58 kcal/mol|
|  sn= 6 | S(rot)=       0.00393986 Eh      2.47 kcal/mol|
|  sn= 7 | S(rot)=       0.00379431 Eh      2.38 kcal/mol|
|  sn= 8 | S(rot)=       0.00366823 Eh      2.30 kcal/mol|
|  sn= 9 | S(rot)=       0.00355702 Eh      2.23 kcal/mol|
|  sn=10 | S(rot)=       0.00345755 Eh      2.17 kcal/mol|
|  sn=11 | S(rot)=       0.00336756 Eh      2.11 kcal/mol|
|  sn=12 | S(rot)=       0.00328540 Eh      2.06 kcal/mol|
 --------------------------------------------------------

-------------------
GIBBS FREE ENERGY
-------------------

The Gibbs free energy is G = H - T*S

Total enthalpy                    ...    -76.40169983 Eh
Total entropy correction          ...     -0.02142436 Eh    -13.44 kcal/mol
-----------------------------------------------------------------------
Final Gibbs free energy         ...    -76.42312419 Eh

For completeness - the Gibbs free energy minus the electronic energy
G-E(el)                           ...      0.00350563 Eh      2.20 kcal/mol

                             ****ORCA TERMINATED NORMALLY****
TOTAL RUN TIME: 0 days 0 hours 0 minutes 15 seconds 116 msec
